Title: ** sch_path:
Date: Sun Aug 21 16:38:36  2022
Plotname: Transient Analysis
Flags: real
No. Variables: 37
No. Points: 2008
Variables:
	0	time	time
	1	v(m.x1.xm1.msky130_fd_pr__pfet_g5v0d10v5#body)	voltage
	2	v(m.x1.xm1.msky130_fd_pr__pfet_g5v0d10v5#dbody)	voltage
	3	v(m.x1.xm1.msky130_fd_pr__pfet_g5v0d10v5#sbody)	voltage
	4	v(m.x1.xm2.msky130_fd_pr__pfet_g5v0d10v5#body)	voltage
	5	v(m.x1.xm2.msky130_fd_pr__pfet_g5v0d10v5#dbody)	voltage
	6	v(m.x1.xm2.msky130_fd_pr__pfet_g5v0d10v5#sbody)	voltage
	7	v(m.x1.xm3.msky130_fd_pr__nfet_03v3_nvt#body)	voltage
	8	v(m.x1.xm3.msky130_fd_pr__nfet_03v3_nvt#dbody)	voltage
	9	v(m.x1.xm3.msky130_fd_pr__nfet_03v3_nvt#sbody)	voltage
	10	v(m.x1.xm4.msky130_fd_pr__nfet_03v3_nvt#body)	voltage
	11	v(m.x1.xm4.msky130_fd_pr__nfet_03v3_nvt#dbody)	voltage
	12	v(m.x1.xm4.msky130_fd_pr__nfet_03v3_nvt#sbody)	voltage
	13	v(m.x1.xm5.msky130_fd_pr__nfet_03v3_nvt#body)	voltage
	14	v(m.x1.xm5.msky130_fd_pr__nfet_03v3_nvt#dbody)	voltage
	15	v(m.x1.xm5.msky130_fd_pr__nfet_03v3_nvt#sbody)	voltage
	16	v(m.xm1.msky130_fd_pr__nfet_03v3_nvt#body)	voltage
	17	v(m.xm1.msky130_fd_pr__nfet_03v3_nvt#dbody)	voltage
	18	v(m.xm1.msky130_fd_pr__nfet_03v3_nvt#sbody)	voltage
	19	v(m.xm6.msky130_fd_pr__nfet_03v3_nvt#body)	voltage
	20	v(m.xm6.msky130_fd_pr__nfet_03v3_nvt#dbody)	voltage
	21	v(m.xm6.msky130_fd_pr__nfet_03v3_nvt#sbody)	voltage
	22	v(net1)	voltage
	23	v(net2)	voltage
	24	i(v1)	current
	25	i(v2)	current
	26	i(v3)	current
	27	i(v4)	current
	28	v(vin)	voltage
	29	v(vip)	voltage
	30	v(von)	voltage
	31	v(vop)	voltage
	32	v(vpwr)	voltage
	33	v(vss)	voltage
	34	v(x1.vtail)	voltage
	35	v(x1.xc1.a)	voltage
	36	v(x1.xc1.b1)	voltage
Values:
 0	0.000000000000000e+00
	2.999999999983082e+00
	2.999999999957706e+00
	2.999999999991541e+00
	2.999999999983082e+00
	2.999999999957706e+00
	2.999999999991541e+00
	-2.999999991257186e+00
	-2.999999995512402e+00
	-2.999999995562212e+00
	-2.999999991257185e+00
	-2.999999995512402e+00
	-2.999999995562212e+00
	-2.999999776848510e+00
	-2.999999888357874e+00
	-2.999999888424255e+00
	1.545453665856744e-12
	3.863600696318673e-12
	7.727602929295181e-13
	-2.999999999999652e+00
	-2.999999999999130e+00
	-2.999999999999826e+00
	-2.972656516370165e+00
	1.226442367241163e-01
	-3.305149385113282e-05
	0.000000000000000e+00
	-2.405149370687809e-05
	0.000000000000000e+00
	0.000000000000000e+00
	0.000000000000000e+00
	1.646602473831493e+00
	1.646602470612284e+00
	3.000000000000000e+00
	-3.000000000000000e+00
	-3.457990358885061e-01
	1.646602470612283e+00
	1.646602470612284e+00

 1	1.000000000000000e-10
	3.000000000000492e+00
	2.999999999985903e+00
	3.000000000000245e+00
	3.000000000000624e+00
	2.999999999986117e+00
	3.000000000000310e+00
	-2.999999991225932e+00
	-2.999999995483015e+00
	-2.999999995528186e+00
	-2.999999991243179e+00
	-2.999999995491531e+00
	-2.999999995536811e+00
	-2.999999776838633e+00
	-2.999999888334538e+00
	-2.999999888419317e+00
	1.545319751542341e-12
	3.863387140786551e-12
	7.726933397856804e-13
	-2.999999999998131e+00
	-2.999999999996935e+00
	-2.999999999999066e+00
	-2.972656502590868e+00
	1.226442367226636e-01
	-3.305150330668027e-05
	-4.963742695750250e-12
	-2.405150517503785e-05
	2.867782170893794e-12
	0.000000000000000e+00
	6.283185303045418e-07
	1.646602674845035e+00
	1.646602670108157e+00
	3.000000000000000e+00
	-3.000000000000000e+00
	-3.457987914114514e-01
	1.646602670108338e+00
	1.646602670108190e+00

 2	2.000000000000000e-10
	2.999999999984621e+00
	2.999999999960197e+00
	2.999999999992311e+00
	2.999999999984891e+00
	2.999999999960635e+00
	2.999999999992446e+00
	-2.999999991231836e+00
	-2.999999995498513e+00
	-2.999999995530173e+00
	-2.999999991249056e+00
	-2.999999995506908e+00
	-2.999999995538783e+00
	-2.999999776838097e+00
	-2.999999888333305e+00
	-2.999999888419049e+00
	1.545450220027207e-12
	3.863595253393560e-12
	7.727585726828491e-13
	-2.999999999998797e+00
	-2.999999999997896e+00
	-2.999999999999398e+00
	-2.972656494848096e+00
	1.226442367226267e-01
	-3.305150606180973e-05
	-5.319868034200909e-12
	-2.405150877038409e-05
	2.515850171963020e-12
	0.000000000000000e+00
	1.256637058128581e-06
	1.646602695540597e+00
	1.646602687699509e+00
	3.000000000000000e+00
	-3.000000000000000e+00
	-3.457985341269244e-01
	1.646602687699879e+00
	1.646602687699578e+00

 3	4.000000000000000e-10
	2.999999999976810e+00
	2.999999999947549e+00
	2.999999999988404e+00
	2.999999999977359e+00
	2.999999999948437e+00
	2.999999999988679e+00
	-2.999999991234746e+00
	-2.999999995506140e+00
	-2.999999995531157e+00
	-2.999999991251912e+00
	-2.999999995514288e+00
	-2.999999995539742e+00
	-2.999999776837615e+00
	-2.999999888332592e+00
	-2.999999888418807e+00
	1.545473735355888e-12
	3.863632822692902e-12
	7.727703185221307e-13
	-2.999999999999599e+00
	-2.999999999999053e+00
	-2.999999999999799e+00
	-2.972656486622089e+00
	1.226442367228087e-01
	-3.305151219024083e-05
	-5.495333002243050e-12
	-2.405151524342841e-05
	2.348740137012820e-12
	0.000000000000000e+00
	2.513274096413146e-06
	1.646602650677365e+00
	1.646602633452968e+00
	3.000000000000000e+00
	-3.000000000000000e+00
	-3.457980133021217e-01
	1.646602633453717e+00
	1.646602633453107e+00

 4	8.000000000000000e-10
	2.999999999982070e+00
	2.999999999956067e+00
	2.999999999991035e+00
	2.999999999983170e+00
	2.999999999957849e+00
	2.999999999991585e+00
	-2.999999991232631e+00
	-2.999999995500926e+00
	-2.999999995529964e+00
	-2.999999991249684e+00
	-2.999999995508580e+00
	-2.999999995538493e+00
	-2.999999776836636e+00
	-2.999999888331969e+00
	-2.999999888418318e+00
	1.545464159648420e-12
	3.863617315213704e-12
	7.727655407825016e-13
	-2.999999999999662e+00
	-2.999999999999145e+00
	-2.999999999999831e+00
	-2.972656485841550e+00
	1.226442367234721e-01
	-3.305152272226053e-05
	-5.319788892524515e-12
	-2.405152530471355e-05
	2.540943489567627e-12
	0.000000000000000e+00
	5.026548034074157e-06
	1.646602521574520e+00
	1.646602466571333e+00
	3.000000000000000e+00
	-3.000000000000000e+00
	-3.457969555757356e-01
	1.646602466572837e+00
	1.646602466571613e+00

 5	1.600000000000000e-09
	2.999999999977763e+00
	2.999999999949090e+00
	2.999999999988881e+00
	2.999999999979961e+00
	2.999999999952650e+00
	2.999999999989980e+00
	-2.999999991234366e+00
	-2.999999995505198e+00
	-2.999999995530854e+00
	-2.999999991251193e+00
	-2.999999995511872e+00
	-2.999999995539268e+00
	-2.999999776834778e+00
	-2.999999888331061e+00
	-2.999999888417389e+00
	1.545444738877005e-12
	3.863586601375520e-12
	7.727558297920487e-13
	-2.999999999999645e+00
	-2.999999999999121e+00
	-2.999999999999822e+00
	-2.972656486025305e+00
	1.226442367235408e-01
	-3.305154120525344e-05
	-5.452335971996339e-12
	-2.405154403106735e-05
	2.441480162398116e-12
	0.000000000000000e+00
	1.005309479813130e-05
	1.646602382551374e+00
	1.646602176373109e+00
	3.000000000000000e+00
	-3.000000000000000e+00
	-3.457948341232315e-01
	1.646602176376113e+00
	1.646602176373668e+00

 6	3.200000000000000e-09
	2.999999999979842e+00
	2.999999999952458e+00
	2.999999999989921e+00
	2.999999999984206e+00
	2.999999999959526e+00
	2.999999999992103e+00
	-2.999999991233611e+00
	-2.999999995503177e+00
	-2.999999995530482e+00
	-2.999999991249980e+00
	-2.999999995507910e+00
	-2.999999995538669e+00
	-2.999999776831058e+00
	-2.999999888329207e+00
	-2.999999888415529e+00
	1.545470794457496e-12
	3.863627867126644e-12
	7.727688562942651e-13
	-2.999999999999656e+00
	-2.999999999999137e+00
	-2.999999999999828e+00
	-2.972656485965372e+00
	1.226442367242523e-01
	-3.305157969712980e-05
	-5.390522399593839e-12
	-2.405158226181925e-05
	2.568582541878257e-12
	0.000000000000000e+00
	2.010617943612842e-05
	1.646602199349781e+00
	1.646601391716164e+00
	3.000000000000000e+00
	-3.000000000000000e+00
	-3.457905941764021e-01
	1.646601391722128e+00
	1.646601391717274e+00

 7	6.400000000000000e-09
	2.999999999974838e+00
	2.999999999944354e+00
	2.999999999987419e+00
	2.999999999983419e+00
	2.999999999958252e+00
	2.999999999991709e+00
	-2.999999991235742e+00
	-2.999999995508197e+00
	-2.999999995531530e+00
	-2.999999991251170e+00
	-2.999999995509127e+00
	-2.999999995539246e+00
	-2.999999776823594e+00
	-2.999999888325457e+00
	-2.999999888411797e+00
	1.545435775044962e-12
	3.863572316164864e-12
	7.727513483707102e-13
	-2.999999999999648e+00
	-2.999999999999123e+00
	-2.999999999999824e+00
	-2.972656485995008e+00
	1.226442367241213e-01
	-3.305165521538811e-05
	-5.539055435423317e-12
	-2.405165812646715e-05
	2.547141849220818e-12
	0.000000000000000e+00
	4.021227759124506e-05
	1.646602467054538e+00
	1.646599286456820e+00
	3.000000000000000e+00
	-3.000000000000000e+00
	-3.457821119117431e-01
	1.646599286468548e+00
	1.646599286459002e+00

 8	1.280000000000000e-08
	2.999999999973609e+00
	2.999999999942363e+00
	2.999999999986805e+00
	2.999999999990187e+00
	2.999999999969212e+00
	2.999999999995094e+00
	-2.999999991236693e+00
	-2.999999995509645e+00
	-2.999999995532028e+00
	-2.999999991250143e+00
	-2.999999995503264e+00
	-2.999999995538754e+00
	-2.999999776808702e+00
	-2.999999888318033e+00
	-2.999999888404351e+00
	1.545473988459921e-12
	3.863632954035949e-12
	7.727704533932443e-13
	-2.999999999999656e+00
	-2.999999999999135e+00
	-2.999999999999829e+00
	-2.972656485918397e+00
	1.226442367249651e-01
	-3.305180767299021e-05
	-5.578934548283499e-12
	-2.405181038156456e-05
	2.748204814197018e-12
	0.000000000000000e+00
	8.042390493636727e-05
	1.646605195378557e+00
	1.646592790731287e+00
	3.000000000000000e+00
	-3.000000000000000e+00
	-3.457651494546952e-01
	1.646592790753946e+00
	1.646592790735504e+00

 9	2.280000000000000e-08
	2.999999999965194e+00
	2.999999999928734e+00
	2.999999999982597e+00
	2.999999999993182e+00
	2.999999999974063e+00
	2.999999999996591e+00
	-2.999999991241051e+00
	-2.999999995518476e+00
	-2.999999995534183e+00
	-2.999999991251181e+00
	-2.999999995501414e+00
	-2.999999995539248e+00
	-2.999999776785394e+00
	-2.999999888306355e+00
	-2.999999888392697e+00
	1.545431135580812e-12
	3.863564918920257e-12
	7.727490285558111e-13
	-2.999999999999648e+00
	-2.999999999999125e+00
	-2.999999999999824e+00
	-2.972656485926675e+00
	1.226442367237681e-01
	-3.305204508130544e-05
	-5.829107972145361e-12
	-2.405204784849957e-05
	2.841528698029663e-12
	0.000000000000000e+00
	1.432517250899016e-04
	1.646615051086679e+00
	1.646577115797744e+00
	3.000000000000000e+00
	-3.000000000000000e+00
	-3.457386445833822e-01
	1.646577115835998e+00
	1.646577115804863e+00

 10	3.280000000000000e-08
	2.999999999962761e+00
	2.999999999924794e+00
	2.999999999981380e+00
	3.000000000000952e+00
	2.999999999986647e+00
	3.000000000000476e+00
	-2.999999991243437e+00
	-2.999999995521593e+00
	-2.999999995535402e+00
	-2.999999991249985e+00
	-2.999999995494676e+00
	-2.999999995538678e+00
	-2.999999776762118e+00
	-2.999999888294745e+00
	-2.999999888381060e+00
	1.545475270364877e-12
	3.863634998879362e-12
	7.727710943660210e-13
	-2.999999999999655e+00
	-2.999999999999135e+00
	-2.999999999999828e+00
	-2.972656485919958e+00
	1.226442367232669e-01
	-3.305228302252772e-05
	-5.905293585874217e-12
	-2.405228562096795e-05
	3.072031059745147e-12
	0.000000000000000e+00
	2.060738899106157e-04
	1.646631073116552e+00
	1.646555226764308e+00
	3.000000000000000e+00
	-3.000000000000000e+00
	-3.457121424399108e-01
	1.646555226816506e+00
	1.646555226774023e+00

 11	4.280000000000000e-08
	2.999999999955579e+00
	2.999999999913161e+00
	2.999999999977789e+00
	3.000000000002888e+00
	2.999999999989785e+00
	3.000000000001444e+00
	-2.999999991248008e+00
	-2.999999995529556e+00
	-2.999999995537662e+00
	-2.999999991250741e+00
	-2.999999995493522e+00
	-2.999999995539031e+00
	-2.999999776738810e+00
	-2.999999888283065e+00
	-2.999999888369405e+00
	1.545432519315010e-12
	3.863567121364739e-12
	7.727497205309080e-13
	-2.999999999999648e+00
	-2.999999999999124e+00
	-2.999999999999824e+00
	-2.972656485886371e+00
	1.226442367235139e-01
	-3.305252034202510e-05
	-6.117502262646278e-12
	-2.405252305948125e-05
	3.133623973169509e-12
	0.000000000000000e+00
	2.688879192870111e-04
	1.646652655373696e+00
	1.646527830185848e+00
	3.000000000000000e+00
	-3.000000000000000e+00
	-3.456856421618397e-01
	1.646527830250509e+00
	1.646527830197882e+00

 12	5.280000000000000e-08
	2.999999999954090e+00
	2.999999999910749e+00
	2.999999999977045e+00
	3.000000000009551e+00
	3.000000000000575e+00
	3.000000000004777e+00
	-2.999999991250650e+00
	-2.999999995532055e+00
	-2.999999995539016e+00
	-2.999999991249361e+00
	-2.999999995487566e+00
	-2.999999995538372e+00
	-2.999999776715538e+00
	-2.999999888271460e+00
	-2.999999888357769e+00
	1.545474541016570e-12
	3.863633837385433e-12
	7.727707296678497e-13
	-2.999999999999656e+00
	-2.999999999999135e+00
	-2.999999999999828e+00
	-2.972656485827128e+00
	1.226442367233663e-01
	-3.305275804699193e-05
	-6.165239616114662e-12
	-2.405276076089535e-05
	3.330153707451913e-12
	0.000000000000000e+00
	3.316913334287630e-04
	1.646679163600536e+00
	1.646495466218327e+00
	3.000000000000000e+00
	-3.000000000000000e+00
	-3.456591468570845e-01
	1.646495466294129e+00
	1.646495466232434e+00

 13	6.279999999999999e-08
	2.999999999947904e+00
	2.999999999900732e+00
	2.999999999973951e+00
	3.000000000010651e+00
	3.000000000002359e+00
	3.000000000005326e+00
	-2.999999991255388e+00
	-2.999999995539313e+00
	-2.999999995541357e+00
	-2.999999991249890e+00
	-2.999999995486959e+00
	-2.999999995538609e+00
	-2.999999776692234e+00
	-2.999999888259781e+00
	-2.999999888346117e+00
	1.545433743118800e-12
	3.863569072769830e-12
	7.727503324254669e-13
	-2.999999999999649e+00
	-2.999999999999125e+00
	-2.999999999999824e+00
	-2.972656486005448e+00
	1.226442367238818e-01
	-3.305299527056604e-05
	-6.346580426353858e-12
	-2.405299807506367e-05
	3.366715637921799e-12
	0.000000000000000e+00
	3.944816529646175e-04
	1.646710118595482e+00
	1.646458706135024e+00
	3.000000000000000e+00
	-3.000000000000000e+00
	-3.456326555469282e-01
	1.646458706220784e+00
	1.646458706150985e+00

 14	7.279999999999999e-08
	2.999999999947156e+00
	2.999999999899518e+00
	2.999999999973577e+00
	3.000000000016414e+00
	3.000000000011691e+00
	3.000000000008208e+00
	-2.999999991258238e+00
	-2.999999995541331e+00
	-2.999999995542820e+00
	-2.999999991248369e+00
	-2.999999995481644e+00
	-2.999999995537886e+00
	-2.999999776668969e+00
	-2.999999888248186e+00
	-2.999999888334485e+00
	1.545473602027609e-12
	3.863632340254699e-12
	7.727702601732054e-13
	-2.999999999999654e+00
	-2.999999999999134e+00
	-2.999999999999827e+00
	-2.972656485893725e+00
	1.226442367238889e-01
	-3.305323297908558e-05
	-6.372057221184675e-12
	-2.405323569121265e-05
	3.535432578732128e-12
	0.000000000000000e+00
	4.572563990402739e-04
	1.646745004750937e+00
	1.646417974112598e+00
	3.000000000000000e+00
	-3.000000000000000e+00
	-3.456061717794194e-01
	1.646417974207256e+00
	1.646417974130215e+00

 15	8.279999999999999e-08
	2.999999999941787e+00
	2.999999999890823e+00
	2.999999999970893e+00
	3.000000000016865e+00
	3.000000000012421e+00
	3.000000000008432e+00
	-2.999999991263099e+00
	-2.999999995548005e+00
	-2.999999995545221e+00
	-2.999999991248709e+00
	-2.999999995481457e+00
	-2.999999995538028e+00
	-2.999999776645673e+00
	-2.999999888236509e+00
	-2.999999888322836e+00
	1.545433126637633e-12
	3.863568091005705e-12
	7.727500241445173e-13
	-2.999999999999649e+00
	-2.999999999999126e+00
	-2.999999999999824e+00
	-2.972656485979355e+00
	1.226442367235618e-01
	-3.305347009785464e-05
	-6.527901867900930e-12
	-2.405347290590498e-05
	3.552612971307928e-12
	0.000000000000000e+00
	5.200130934162445e-04
	1.646783449061321e+00
	1.646373738193442e+00
	3.000000000000000e+00
	-3.000000000000000e+00
	-3.455796942578023e-01
	1.646373738296051e+00
	1.646373738212539e+00

 16	9.279999999999998e-08
	2.999999999941616e+00
	2.999999999890546e+00
	2.999999999970807e+00
	3.000000000021892e+00
	3.000000000020562e+00
	3.000000000010947e+00
	-2.999999991266123e+00
	-2.999999995549655e+00
	-2.999999995546775e+00
	-2.999999991247081e+00
	-2.999999995476670e+00
	-2.999999995537256e+00
	-2.999999776622421e+00
	-2.999999888224925e+00
	-2.999999888311211e+00
	1.545474664418683e-12
	3.863634033950017e-12
	7.727707914085451e-13
	-2.999999999999655e+00
	-2.999999999999134e+00
	-2.999999999999828e+00
	-2.972656486036611e+00
	1.226442367238110e-01
	-3.305370765183113e-05
	-6.535951274170623e-12
	-2.405371032665471e-05
	3.698537415029574e-12
	0.000000000000000e+00
	5.827492585656920e-04
	1.646825029940401e+00
	1.646326329340784e+00
	3.000000000000000e+00
	-3.000000000000000e+00
	-3.455532261520711e-01
	1.646326329450496e+00
	1.646326329361202e+00

 17	1.028000000000000e-07
	2.999999999936918e+00
	2.999999999882936e+00
	2.999999999968459e+00
	3.000000000021835e+00
	3.000000000020472e+00
	3.000000000010918e+00
	-2.999999991271075e+00
	-2.999999995555845e+00
	-2.999999995549221e+00
	-2.999999991247265e+00
	-2.999999995476806e+00
	-2.999999995537318e+00
	-2.999999776599136e+00
	-2.999999888213252e+00
	-2.999999888299568e+00
	1.545432458090410e-12
	3.863567025332378e-12
	7.727496898732722e-13
	-2.999999999999647e+00
	-2.999999999999124e+00
	-2.999999999999824e+00
	-2.972656485935877e+00
	1.226442367236975e-01
	-3.305394457875366e-05
	-6.670905098712154e-12
	-2.405394744542377e-05
	3.700542005558357e-12
	0.000000000000000e+00
	6.454624177722379e-04
	1.646869456833413e+00
	1.646276130621765e+00
	3.000000000000000e+00
	-3.000000000000000e+00
	-3.455267668622943e-01
	1.646276130737821e+00
	1.646276130643364e+00

 18	1.128000000000000e-07
	2.999999999937190e+00
	2.999999999883377e+00
	2.999999999968594e+00
	3.000000000026254e+00
	3.000000000027629e+00
	3.000000000013128e+00
	-2.999999991274243e+00
	-2.999999995557216e+00
	-2.999999995550852e+00
	-2.999999991245562e+00
	-2.999999995472462e+00
	-2.999999995536513e+00
	-2.999999776575899e+00
	-2.999999888201680e+00
	-2.999999888287950e+00
	1.545473996215566e-12
	3.863632970023695e-12
	7.727704572696496e-13
	-2.999999999999655e+00
	-2.999999999999135e+00
	-2.999999999999828e+00
	-2.972656485978541e+00
	1.226442367232227e-01
	-3.305418210075572e-05
	-6.665443740308787e-12
	-2.405418467787968e-05
	3.827646065565101e-12
	0.000000000000000e+00
	7.081500952277389e-04
	1.646916381704567e+00
	1.646223396651638e+00
	3.000000000000000e+00
	-3.000000000000000e+00
	-3.455003190283243e-01
	1.646223396773359e+00
	1.646223396674292e+00

 19	1.228000000000000e-07
	2.999999999933048e+00
	2.999999999876668e+00
	2.999999999966523e+00
	3.000000000025811e+00
	3.000000000026914e+00
	3.000000000012906e+00
	-2.999999991279259e+00
	-2.999999995562999e+00
	-2.999999995553328e+00
	-2.999999991245613e+00
	-2.999999995472836e+00
	-2.999999995536506e+00
	-2.999999776552631e+00
	-2.999999888190014e+00
	-2.999999888276315e+00
	1.545433839230570e-12
	3.863569227565101e-12
	7.727503804834580e-13
	-2.999999999999649e+00
	-2.999999999999125e+00
	-2.999999999999824e+00
	-2.972656486006937e+00
	1.226442367234966e-01
	-3.305441881806814e-05
	-6.782863273505001e-12
	-2.405442155506421e-05
	3.818170374145381e-12
	0.000000000000000e+00
	7.708098161300275e-04
	1.646965583866781e+00
	1.646168446365492e+00
	3.000000000000000e+00
	-3.000000000000000e+00
	-3.454738819526241e-01
	1.646168446492269e+00
	1.646168446389086e+00

 20	1.328000000000000e-07
	2.999999999933663e+00
	2.999999999877661e+00
	2.999999999966831e+00
	3.000000000029729e+00
	3.000000000033258e+00
	3.000000000014865e+00
	-2.999999991282547e+00
	-2.999999995564159e+00
	-2.999999995555024e+00
	-2.999999991243854e+00
	-2.999999995468861e+00
	-2.999999995535677e+00
	-2.999999776529415e+00
	-2.999999888178458e+00
	-2.999999888264708e+00
	1.545473270255391e-12
	3.863631811812019e-12
	7.727700942925321e-13
	-2.999999999999655e+00
	-2.999999999999134e+00
	-2.999999999999828e+00
	-2.972656485946446e+00
	1.226442367233767e-01
	-3.305465599545698e-05
	-6.767072416046034e-12
	-2.405465861698985e-05
	3.929556755548770e-12
	0.000000000000000e+00
	8.334391067806133e-04
	1.647016775461341e+00
	1.646111475155681e+00
	3.000000000000000e+00
	-3.000000000000000e+00
	-3.454474586108233e-01
	1.646111475286971e+00
	1.646111475180116e+00

 21	1.428000000000000e-07
	2.999999999929975e+00
	2.999999999871689e+00
	2.999999999964986e+00
	3.000000000028987e+00
	3.000000000032057e+00
	3.000000000014494e+00
	-2.999999991287608e+00
	-2.999999995569606e+00
	-2.999999995557520e+00
	-2.999999991243795e+00
	-2.999999995469417e+00
	-2.999999995535616e+00
	-2.999999776506163e+00
	-2.999999888166799e+00
	-2.999999888253082e+00
	1.545435045220199e-12
	3.863571151018106e-12
	7.727509834705820e-13
	-2.999999999999649e+00
	-2.999999999999126e+00
	-2.999999999999824e+00
	-2.972656486041293e+00
	1.226442367239104e-01
	-3.305489255289729e-05
	-6.870007806347871e-12
	-2.405489523482629e-05
	3.911191544933054e-12
	0.000000000000000e+00
	8.960354946823392e-04
	1.647069784355781e+00
	1.646052743329271e+00
	3.000000000000000e+00
	-3.000000000000000e+00
	-3.454210481197251e-01
	1.646052743464585e+00
	1.646052743354454e+00

 22	1.528000000000000e-07
	2.999999999930856e+00
	2.999999999873115e+00
	2.999999999965428e+00
	3.000000000032494e+00
	3.000000000037737e+00
	3.000000000016247e+00
	-2.999999991290993e+00
	-2.999999995570603e+00
	-2.999999995559268e+00
	-2.999999991241996e+00
	-2.999999995465744e+00
	-2.999999995534771e+00
	-2.999999776482970e+00
	-2.999999888155257e+00
	-2.999999888241485e+00
	1.545472322690221e-12
	3.863630298587659e-12
	7.727696205095004e-13
	-2.999999999999654e+00
	-2.999999999999133e+00
	-2.999999999999827e+00
	-2.972656485997400e+00
	1.226442367239298e-01
	-3.305512938567290e-05
	-6.846103834584564e-12
	-2.405513202319298e-05
	4.009686566735101e-12
	0.000000000000000e+00
	9.585965086369941e-04
	1.647124376199278e+00
	1.645992403974606e+00
	3.000000000000000e+00
	-3.000000000000000e+00
	-3.453946534008115e-01
	1.645992404113507e+00
	1.645992404000457e+00

 23	1.628000000000000e-07
	2.999999999927541e+00
	2.999999999867745e+00
	2.999999999963769e+00
	3.000000000031519e+00
	3.000000000036160e+00
	3.000000000015760e+00
	-2.999999991296086e+00
	-2.999999995575771e+00
	-2.999999995561781e+00
	-2.999999991241848e+00
	-2.999999995466440e+00
	-2.999999995534663e+00
	-2.999999776459741e+00
	-2.999999888143609e+00
	-2.999999888229870e+00
	1.545434405763263e-12
	3.863570132143350e-12
	7.727506637016674e-13
	-2.999999999999649e+00
	-2.999999999999125e+00
	-2.999999999999824e+00
	-2.972656486040929e+00
	1.226442367236026e-01
	-3.305536564646161e-05
	-6.937057366104845e-12
	-2.405536838878675e-05
	3.984427507639370e-12
	0.000000000000000e+00
	1.021119678842868e-03
	1.647180417545522e+00
	1.645930670624522e+00
	3.000000000000000e+00
	-3.000000000000000e+00
	-3.453682737813408e-01
	1.645930670766621e+00
	1.645930670650968e+00

 24	1.728000000000000e-07
	2.999999999928627e+00
	2.999999999869503e+00
	2.999999999964312e+00
	3.000000000034687e+00
	3.000000000041291e+00
	3.000000000017345e+00
	-2.999999991299552e+00
	-2.999999995576649e+00
	-2.999999995563573e+00
	-2.999999991240020e+00
	-2.999999995463021e+00
	-2.999999995533808e+00
	-2.999999776436575e+00
	-2.999999888132086e+00
	-2.999999888218288e+00
	1.545473375816872e-12
	3.863631978042235e-12
	7.727701470975235e-13
	-2.999999999999654e+00
	-2.999999999999134e+00
	-2.999999999999827e+00
	-2.972656486060453e+00
	1.226442367238469e-01
	-3.305560214528214e-05
	-6.906893247089152e-12
	-2.405560485385649e-05
	4.072211118529432e-12
	0.000000000000000e+00
	1.083602536992258e-03
	1.647237714321859e+00
	1.645867660023066e+00
	3.000000000000000e+00
	-3.000000000000000e+00
	-3.453419118679892e-01
	1.645867660168011e+00
	1.645867660050042e+00

 25	1.828000000000000e-07
	2.999999999925620e+00
	2.999999999864634e+00
	2.999999999962808e+00
	3.000000000033536e+00
	3.000000000039428e+00
	3.000000000016768e+00
	-2.999999991304663e+00
	-2.999999995581581e+00
	-2.999999995566094e+00
	-2.999999991239795e+00
	-2.999999995463819e+00
	-2.999999995533662e+00
	-2.999999776413374e+00
	-2.999999888120450e+00
	-2.999999888206687e+00
	1.545433723345875e-12
	3.863569042488402e-12
	7.727503224955075e-13
	-2.999999999999649e+00
	-2.999999999999125e+00
	-2.999999999999824e+00
	-2.972656486084559e+00
	1.226442367237203e-01
	-3.305583810586654e-05
	-6.987827230071821e-12
	-2.405584091036417e-05
	4.041701293141008e-12
	0.000000000000000e+00
	1.146042616368912e-03
	1.647296165424261e+00
	1.645803549548326e+00
	3.000000000000000e+00
	-3.000000000000000e+00
	-3.453155672964575e-01
	1.645803549695803e+00
	1.645803549575773e+00

 26	1.928000000000001e-07
	2.999999999926855e+00
	2.999999999866632e+00
	2.999999999963427e+00
	3.000000000036418e+00
	3.000000000044096e+00
	3.000000000018209e+00
	-2.999999991308198e+00
	-2.999999995582376e+00
	-2.999999995567925e+00
	-2.999999991237954e+00
	-2.999999995460619e+00
	-2.999999995532804e+00
	-2.999999776390239e+00
	-2.999999888108945e+00
	-2.999999888195119e+00
	1.545472711240116e-12
	3.863630917821683e-12
	7.727698147871226e-13
	-2.999999999999653e+00
	-2.999999999999133e+00
	-2.999999999999827e+00
	-2.972656486086513e+00
	1.226442367232332e-01
	-3.305607448744752e-05
	-6.953051500909711e-12
	-2.405607704858426e-05
	4.120360169317805e-12
	0.000000000000000e+00
	1.208437451945412e-03
	1.647355606676412e+00
	1.645738424379440e+00
	3.000000000000000e+00
	-3.000000000000000e+00
	-3.452892426039711e-01
	1.645738424529168e+00
	1.645738424407305e+00

 27	2.028000000000001e-07
	2.999999999924121e+00
	2.999999999862204e+00
	2.999999999962059e+00
	3.000000000035149e+00
	3.000000000042041e+00
	3.000000000017575e+00
	-2.999999991313313e+00
	-2.999999995587095e+00
	-2.999999995570446e+00
	-2.999999991237658e+00
	-2.999999995461475e+00
	-2.999999995532620e+00
	-2.999999776367066e+00
	-2.999999888097324e+00
	-2.999999888183533e+00
	1.545435099880293e-12
	3.863571238050741e-12
	7.727510108030784e-13
	-2.999999999999649e+00
	-2.999999999999126e+00
	-2.999999999999825e+00
	-2.972656486131555e+00
	1.226442367234925e-01
	-3.305630996663922e-05
	-7.025046471317196e-12
	-2.405631276403142e-05
	4.086389259151381e-12
	0.000000000000000e+00
	1.270784580480485e-03
	1.647415969913672e+00
	1.645672440306184e+00
	3.000000000000000e+00
	-3.000000000000000e+00
	-3.452629371323676e-01
	1.645672440457910e+00
	1.645672440334422e+00

 28	2.128000000000001e-07
	2.999999999925456e+00
	2.999999999864365e+00
	2.999999999962727e+00
	3.000000000037781e+00
	3.000000000046305e+00
	3.000000000018892e+00
	-2.999999991316906e+00
	-2.999999995587838e+00
	-2.999999995572311e+00
	-2.999999991235812e+00
	-2.999999995458471e+00
	-2.999999995531764e+00
	-2.999999776343966e+00
	-2.999999888085842e+00
	-2.999999888171983e+00
	1.545471994756121e-12
	3.863629776709484e-12
	7.727694565482648e-13
	-2.999999999999653e+00
	-2.999999999999133e+00
	-2.999999999999827e+00
	-2.972656486209751e+00
	1.226442367233642e-01
	-3.305654582419493e-05
	-6.987118007717489e-12
	-2.405654850434757e-05
	4.157019572858485e-12
	0.000000000000000e+00
	1.333081540616252e-03
	1.647477112159915e+00
	1.645605655173963e+00
	3.000000000000000e+00
	-3.000000000000000e+00
	-3.452366535212500e-01
	1.645605655327461e+00
	1.645605655202530e+00

 29	2.228000000000001e-07
	2.999999999922944e+00
	2.999999999860296e+00
	2.999999999961470e+00
	3.000000000036418e+00
	3.000000000044098e+00
	3.000000000018209e+00
	-2.999999991322022e+00
	-2.999999995592383e+00
	-2.999999995574832e+00
	-2.999999991235461e+00
	-2.999999995459371e+00
	-2.999999995531553e+00
	-2.999999776320827e+00
	-2.999999888074237e+00
	-2.999999888160413e+00
	1.545436308437490e-12
	3.863573164203663e-12
	7.727516150741416e-13
	-2.999999999999648e+00
	-2.999999999999125e+00
	-2.999999999999824e+00
	-2.972656486165195e+00
	1.226442367238905e-01
	-3.305678120568700e-05
	-7.051804591032359e-12
	-2.405678384675980e-05
	4.120286526460191e-12
	0.000000000000000e+00
	1.395325872975397e-03
	1.647538980507227e+00
	1.645538195781644e+00
	3.000000000000000e+00
	-3.000000000000000e+00
	-3.452103916562879e-01
	1.645538195936711e+00
	1.645538195810503e+00

 30	2.328000000000001e-07
	2.999999999924365e+00
	2.999999999862597e+00
	2.999999999962181e+00
	3.000000000038857e+00
	3.000000000048047e+00
	3.000000000019429e+00
	-2.999999991325661e+00
	-2.999999995593082e+00
	-2.999999995576722e+00
	-2.999999991233609e+00
	-2.999999995456519e+00
	-2.999999995530697e+00
	-2.999999776297765e+00
	-2.999999888062775e+00
	-2.999999888148882e+00
	1.545471059499399e-12
	3.863628285507981e-12
	7.727689889194967e-13
	-2.999999999999654e+00
	-2.999999999999134e+00
	-2.999999999999827e+00
	-2.972656486257574e+00
	1.226442367239101e-01
	-3.305701654277016e-05
	-7.011001334415899e-12
	-2.405701918561931e-05
	4.184670870618555e-12
	0.000000000000000e+00
	1.457515120258257e-03
	1.647601462945010e+00
	1.645470111800006e+00
	3.000000000000000e+00
	-3.000000000000000e+00
	-3.451841533771826e-01
	1.645470111956459e+00
	1.645470111829123e+00

 31	2.428000000000001e-07
	2.999999999922034e+00
	2.999999999858820e+00
	2.999999999961016e+00
	3.000000000037419e+00
	3.000000000045722e+00
	3.000000000018710e+00
	-2.999999991330772e+00
	-2.999999995597482e+00
	-2.999999995579243e+00
	-2.999999991233213e+00
	-2.999999995457455e+00
	-2.999999995530464e+00
	-2.999999776274664e+00
	-2.999999888051189e+00
	-2.999999888137332e+00
	1.545435672924552e-12
	3.863572149617011e-12
	7.727512972772369e-13
	-2.999999999999647e+00
	-2.999999999999124e+00
	-2.999999999999824e+00
	-2.972656486168401e+00
	1.226442367235841e-01
	-3.305725143931681e-05
	-7.069709816594421e-12
	-2.405725413012760e-05
	4.145665489594406e-12
	0.000000000000000e+00
	1.519646827339836e-03
	1.647664517527315e+00
	1.645401506425418e+00
	3.000000000000000e+00
	-3.000000000000000e+00
	-3.451579390252447e-01
	1.645401506583094e+00
	1.645401506454763e+00

 32	2.528000000000001e-07
	2.999999999923514e+00
	2.999999999861215e+00
	2.999999999961756e+00
	3.000000000039688e+00
	3.000000000049395e+00
	3.000000000019845e+00
	-2.999999991334449e+00
	-2.999999995598153e+00
	-2.999999995581153e+00
	-2.999999991231364e+00
	-2.999999995454738e+00
	-2.999999995529611e+00
	-2.999999776251642e+00
	-2.999999888039751e+00
	-2.999999888125821e+00
	1.545472122816915e-12